<?xml version="1.0" encoding="UTF-8"?>

<!-- generated on 2025-08-11 15:47:06 by Eclipse SUMO sumo Version 1.23.1
<sumoConfiguration xmlns:xsi="http://www.w3.org/2001/XMLSchema-instance" xsi:noNamespaceSchemaLocation="http://sumo.dlr.de/xsd/sumoConfiguration.xsd">

    <input>
        <net-file value="/mininet-wifi/mn_wifi/sumo/scripts/sumo_files/grid.net.xml"/>
        <route-files value="/mininet-wifi/mn_wifi/sumo/scripts/sumo_files/routes.xml"/>
    </input>

    <output>
        <summary-output value="/mininet-wifi/mn_wifi/sumo/scripts/sumo_files/summary.xml"/>
        <tripinfo-output value="/mininet-wifi/mn_wifi/sumo/scripts/sumo_files/tripinfo.xml"/>
    </output>

    <time>
        <begin value="0"/>
        <end value="3000"/>
        <step-length value="0.1"/>
    </time>

    <processing>
        <threads value="2"/>
        <ignore-route-errors value="true"/>
        <collision.action value="warn"/>
        <time-to-teleport value="-1"/>
        <max-depart-delay value="300"/>
    </processing>

    <report>
        <no-warnings value="true"/>
        <no-step-log value="true"/>
    </report>

    <traci_server>
        <remote-port value="8813"/>
        <num-clients value="1"/>
    </traci_server>

    <gui_only>
        <start value="true"/>
        <delay value="100"/>
    </gui_only>

</sumoConfiguration>
-->

<tripinfos xmlns:xsi="http://www.w3.org/2001/XMLSchema-instance" xsi:noNamespaceSchemaLocation="http://sumo.dlr.de/xsd/tripinfo_file.xsd">
